<?xml version="1.0" encoding="UTF-8"?>

<!-- generated on 2024-04-30 14:31:35 by Eclipse SUMO GUI Version v1_19_0+0208-13a9e45677a
<configuration xmlns:xsi="http://www.w3.org/2001/XMLSchema-instance" xsi:noNamespaceSchemaLocation="http://sumo.dlr.de/xsd/sumoConfiguration.xsd">

    <input>
        <net-file value="osm.net.xml"/>
        <route-files value="osm.rou.xml"/>
        <additional-files value="osm.add.xml"/>
    </input>

    <output>
        <tripinfo-output value="tripinfo.xml"/>
    </output>

    <processing>
        <lateral-resolution value="1.6"/>
        <time-to-teleport value="-1"/>
    </processing>

    <traci_server>
        <remote-port value="51232"/>
    </traci_server>

</configuration>
-->

<tripinfos xmlns:xsi="http://www.w3.org/2001/XMLSchema-instance" xsi:noNamespaceSchemaLocation="http://sumo.dlr.de/xsd/tripinfo_file.xsd">
    <tripinfo id="f_33.0" depart="1.00" departLane="R7_0" departPos="2.30" departPosLat="0.00" departSpeed="14.60" departDelay="1.00" arrival="36.00" arrivalLane="univ-road-lower-in_0" arrivalPos="134.83" arrivalPosLat="1.15" arrivalSpeed="12.77" duration="35.00" routeLength="457.66" waitingTime="0.00" waitingCount="0" stopTime="0.00" timeLoss="4.12" rerouteNo="0" devices="tripinfo_f_33.0" vType="phMotor" speedFactor="1.00" vaporized=""/>
    <tripinfo id="f_35.0" depart="2.00" departLane="R7_1" departPos="2.30" departPosLat="0.00" departSpeed="14.06" departDelay="2.00" arrival="38.00" arrivalLane="univ-road-upper-in_0" arrivalPos="135.42" arrivalPosLat="1.15" arrivalSpeed="13.24" duration="36.00" routeLength="460.57" waitingTime="0.00" waitingCount="0" stopTime="0.00" timeLoss="5.85" rerouteNo="0" devices="tripinfo_f_35.0" vType="phMotor" speedFactor="1.00" vaporized=""/>
    <tripinfo id="f_34.0" depart="1.00" departLane="R7_2" departPos="5.10" departPosLat="0.00" departSpeed="9.96" departDelay="1.00" arrival="44.00" arrivalLane="univ-road-lower-in_0" arrivalPos="134.83" arrivalPosLat="0.00" arrivalSpeed="11.66" duration="43.00" routeLength="454.86" waitingTime="0.00" waitingCount="0" stopTime="0.00" timeLoss="10.84" rerouteNo="0" devices="tripinfo_f_34.0" vType="phCar" speedFactor="0.93" vaporized=""/>
    <tripinfo id="f_36.0" depart="2.00" departLane="R7_0" departPos="5.10" departPosLat="0.00" departSpeed="9.15" departDelay="2.00" arrival="51.00" arrivalLane="univ-road-upper-in_0" arrivalPos="135.42" arrivalPosLat="0.00" arrivalSpeed="11.12" duration="49.00" routeLength="457.77" waitingTime="0.00" waitingCount="0" stopTime="0.00" timeLoss="14.33" rerouteNo="0" devices="tripinfo_f_36.0" vType="phCar" speedFactor="0.88" vaporized=""/>
    <tripinfo id="f_31.0" depart="0.00" departLane="R7_2" departPos="2.30" departPosLat="0.00" departSpeed="16.67" departDelay="0.00" arrival="58.00" arrivalLane="thornton-drive-extension-towards_0" arrivalPos="188.45" arrivalPosLat="1.15" arrivalSpeed="12.83" duration="58.00" routeLength="791.56" waitingTime="0.00" waitingCount="0" stopTime="0.00" timeLoss="7.06" rerouteNo="0" devices="tripinfo_f_31.0" vType="phMotor" speedFactor="1.00" vaporized=""/>
    <tripinfo id="f_33.1" depart="25.00" departLane="R7_2" departPos="2.30" departPosLat="0.00" departSpeed="16.67" departDelay="0.51" arrival="60.00" arrivalLane="univ-road-lower-in_0" arrivalPos="134.83" arrivalPosLat="1.15" arrivalSpeed="13.06" duration="35.00" routeLength="457.66" waitingTime="0.00" waitingCount="0" stopTime="0.00" timeLoss="4.03" rerouteNo="0" devices="tripinfo_f_33.1" vType="phMotor" speedFactor="1.00" vaporized=""/>
    <tripinfo id="f_32.0" depart="1.00" departLane="R7_1" departPos="5.10" departPosLat="0.00" departSpeed="15.81" departDelay="1.00" arrival="62.00" arrivalLane="thornton-drive-extension-towards_0" arrivalPos="188.45" arrivalPosLat="0.00" arrivalSpeed="13.00" duration="61.00" routeLength="788.76" waitingTime="0.00" waitingCount="0" stopTime="0.00" timeLoss="9.56" rerouteNo="0" devices="tripinfo_f_32.0" vType="phCar" speedFactor="0.99" vaporized=""/>
    <tripinfo id="f_27.0" depart="10.00" departLane="thornton-drive-extension-outward_0" departPos="2.30" departPosLat="0.00" departSpeed="3.14" departDelay="10.00" arrival="63.00" arrivalLane="R1_0" arrivalPos="244.49" arrivalPosLat="1.15" arrivalSpeed="14.85" duration="53.00" routeLength="619.67" waitingTime="0.00" waitingCount="0" stopTime="0.00" timeLoss="12.36" rerouteNo="0" devices="tripinfo_f_27.0" vType="phMotor" speedFactor="1.00" vaporized=""/>
    <tripinfo id="f_30.0" depart="0.00" departLane="R7_1" departPos="5.10" departPosLat="0.00" departSpeed="18.72" departDelay="0.00" arrival="65.00" arrivalLane="R1_0" arrivalPos="244.49" arrivalPosLat="0.00" arrivalSpeed="18.00" duration="65.00" routeLength="962.47" waitingTime="0.00" waitingCount="0" stopTime="0.00" timeLoss="13.27" rerouteNo="0" devices="tripinfo_f_30.0" vType="phCar" speedFactor="1.12" vaporized=""/>
    <tripinfo id="f_29.0" depart="0.00" departLane="R7_0" departPos="2.30" departPosLat="0.00" departSpeed="16.67" departDelay="0.00" arrival="66.00" arrivalLane="R1_1" arrivalPos="244.49" arrivalPosLat="1.15" arrivalSpeed="15.95" duration="66.00" routeLength="965.27" waitingTime="0.00" waitingCount="0" stopTime="0.00" timeLoss="8.08" rerouteNo="0" devices="tripinfo_f_29.0" vType="phMotor" speedFactor="1.00" vaporized=""/>
    <tripinfo id="f_29.1" depart="2.00" departLane="R7_2" departPos="2.30" departPosLat="0.00" departSpeed="7.29" departDelay="0.41" arrival="67.00" arrivalLane="R1_2" arrivalPos="244.49" arrivalPosLat="1.15" arrivalSpeed="14.90" duration="65.00" routeLength="965.27" waitingTime="0.00" waitingCount="0" stopTime="0.00" timeLoss="6.40" rerouteNo="0" devices="tripinfo_f_29.1" vType="phMotor" speedFactor="1.00" vaporized=""/>
    <tripinfo id="f_29.3" depart="5.00" departLane="R7_2" departPos="2.30" departPosLat="0.00" departSpeed="16.67" departDelay="0.22" arrival="69.00" arrivalLane="R1_1" arrivalPos="244.49" arrivalPosLat="1.15" arrivalSpeed="14.73" duration="64.00" routeLength="965.27" waitingTime="0.00" waitingCount="0" stopTime="0.00" timeLoss="5.24" rerouteNo="0" devices="tripinfo_f_29.3" vType="phMotor" speedFactor="1.00" vaporized=""/>
    <tripinfo id="f_11.2" depart="4.00" departLane="L1_2" departPos="2.30" departPosLat="0.00" departSpeed="10.58" departDelay="0.70" arrival="71.00" arrivalLane="L12_1" arrivalPos="30.10" arrivalPosLat="1.15" arrivalSpeed="16.43" duration="67.00" routeLength="959.13" waitingTime="0.00" waitingCount="0" stopTime="0.00" timeLoss="8.98" rerouteNo="0" devices="tripinfo_f_11.2" vType="phMotor" speedFactor="1.00" vaporized=""/>
    <tripinfo id="f_29.5" depart="8.00" departLane="R7_2" departPos="2.30" departPosLat="0.00" departSpeed="16.67" departDelay="0.04" arrival="72.00" arrivalLane="R1_1" arrivalPos="244.49" arrivalPosLat="1.15" arrivalSpeed="16.17" duration="64.00" routeLength="965.27" waitingTime="0.00" waitingCount="0" stopTime="0.00" timeLoss="5.72" rerouteNo="0" devices="tripinfo_f_29.5" vType="phMotor" speedFactor="1.00" vaporized=""/>
    <tripinfo id="f_34.1" depart="37.00" departLane="R7_1" departPos="5.10" departPosLat="0.00" departSpeed="14.54" departDelay="0.27" arrival="72.00" arrivalLane="univ-road-lower-in_0" arrivalPos="134.83" arrivalPosLat="0.00" arrivalSpeed="15.20" duration="35.00" routeLength="454.86" waitingTime="0.00" waitingCount="0" stopTime="0.00" timeLoss="8.48" rerouteNo="0" devices="tripinfo_f_34.1" vType="phCar" speedFactor="1.14" vaporized=""/>
    <tripinfo id="f_11.4" depart="7.00" departLane="L1_2" departPos="2.30" departPosLat="0.00" departSpeed="16.67" departDelay="0.41" arrival="73.00" arrivalLane="L12_2" arrivalPos="30.10" arrivalPosLat="1.15" arrivalSpeed="15.47" duration="66.00" routeLength="959.13" waitingTime="0.00" waitingCount="0" stopTime="0.00" timeLoss="7.89" rerouteNo="0" devices="tripinfo_f_11.4" vType="phMotor" speedFactor="1.00" vaporized=""/>
    <tripinfo id="f_30.4" depart="10.00" departLane="R7_2" departPos="5.10" departPosLat="0.00" departSpeed="14.34" departDelay="0.44" arrival="73.00" arrivalLane="R1_2" arrivalPos="244.49" arrivalPosLat="0.00" arrivalSpeed="18.88" duration="63.00" routeLength="962.47" waitingTime="0.00" waitingCount="0" stopTime="0.00" timeLoss="13.93" rerouteNo="0" devices="tripinfo_f_30.4" vType="phCar" speedFactor="1.18" vaporized=""/>
    <tripinfo id="f_28.0" depart="12.00" departLane="thornton-drive-extension-outward_0" departPos="5.10" departPosLat="0.00" departSpeed="2.87" departDelay="12.00" arrival="75.00" arrivalLane="R1_1" arrivalPos="244.49" arrivalPosLat="0.00" arrivalSpeed="16.96" duration="63.00" routeLength="616.87" waitingTime="6.00" waitingCount="1" stopTime="0.00" timeLoss="24.62" rerouteNo="0" devices="tripinfo_f_28.0" vType="phCar" speedFactor="1.05" vaporized=""/>
    <tripinfo id="f_11.7" depart="12.00" departLane="L1_3" departPos="2.30" departPosLat="0.00" departSpeed="16.67" departDelay="0.46" arrival="75.00" arrivalLane="L12_2" arrivalPos="30.10" arrivalPosLat="1.15" arrivalSpeed="14.60" duration="63.00" routeLength="959.13" waitingTime="0.00" waitingCount="0" stopTime="0.00" timeLoss="5.29" rerouteNo="0" devices="tripinfo_f_11.7" vType="phMotor" speedFactor="1.00" vaporized=""/>
    <tripinfo id="f_11.5" depart="9.00" departLane="L1_3" departPos="2.30" departPosLat="0.00" departSpeed="16.67" departDelay="0.76" arrival="76.00" arrivalLane="L12_2" arrivalPos="30.10" arrivalPosLat="-1.05" arrivalSpeed="15.51" duration="67.00" routeLength="959.13" waitingTime="0.00" waitingCount="0" stopTime="0.00" timeLoss="8.60" rerouteNo="0" devices="tripinfo_f_11.5" vType="phMotor" speedFactor="1.00" vaporized=""/>
    <tripinfo id="f_11.0" depart="2.00" departLane="L1_4" departPos="2.30" departPosLat="0.00" departSpeed="13.15" departDelay="2.00" arrival="77.00" arrivalLane="L12_2" arrivalPos="30.10" arrivalPosLat="1.15" arrivalSpeed="15.94" duration="75.00" routeLength="959.13" waitingTime="0.00" waitingCount="0" stopTime="0.00" timeLoss="17.01" rerouteNo="0" devices="tripinfo_f_11.0" vType="phMotor" speedFactor="1.00" vaporized=""/>
    <tripinfo id="f_12.1" depart="3.00" departLane="L1_1" departPos="5.10" departPosLat="0.00" departSpeed="12.04" departDelay="0.53" arrival="79.00" arrivalLane="L12_0" arrivalPos="30.10" arrivalPosLat="0.00" arrivalSpeed="14.55" duration="76.00" routeLength="956.33" waitingTime="0.00" waitingCount="0" stopTime="0.00" timeLoss="11.01" rerouteNo="0" devices="tripinfo_f_12.1" vType="phCar" speedFactor="0.89" vaporized=""/>
    <tripinfo id="f_11.3" depart="5.00" departLane="L1_4" departPos="2.30" departPosLat="0.00" departSpeed="16.67" departDelay="0.06" arrival="79.00" arrivalLane="L12_2" arrivalPos="30.10" arrivalPosLat="1.15" arrivalSpeed="15.68" duration="74.00" routeLength="959.13" waitingTime="0.00" waitingCount="0" stopTime="0.00" timeLoss="16.19" rerouteNo="0" devices="tripinfo_f_11.3" vType="phMotor" speedFactor="1.00" vaporized=""/>
    <tripinfo id="f_29.8" depart="13.00" departLane="R7_2" departPos="2.30" departPosLat="0.00" departSpeed="16.67" departDelay="0.26" arrival="79.00" arrivalLane="R1_1" arrivalPos="244.49" arrivalPosLat="1.15" arrivalSpeed="15.11" duration="66.00" routeLength="965.27" waitingTime="0.00" waitingCount="0" stopTime="0.00" timeLoss="7.21" rerouteNo="0" devices="tripinfo_f_29.8" vType="phMotor" speedFactor="1.00" vaporized=""/>
    <tripinfo id="f_12.3" depart="8.00" departLane="L1_1" departPos="5.10" departPosLat="0.00" departSpeed="15.82" departDelay="0.58" arrival="80.00" arrivalLane="L12_1" arrivalPos="30.10" arrivalPosLat="0.00" arrivalSpeed="15.34" duration="72.00" routeLength="956.33" waitingTime="0.00" waitingCount="0" stopTime="0.00" timeLoss="11.20" rerouteNo="0" devices="tripinfo_f_12.3" vType="phCar" speedFactor="0.95" vaporized=""/>
    <tripinfo id="f_11.8" depart="14.00" departLane="L1_3" departPos="2.30" departPosLat="0.00" departSpeed="16.67" departDelay="0.82" arrival="80.00" arrivalLane="L12_2" arrivalPos="30.10" arrivalPosLat="-0.85" arrivalSpeed="16.51" duration="66.00" routeLength="959.13" waitingTime="0.00" waitingCount="0" stopTime="0.00" timeLoss="8.06" rerouteNo="0" devices="tripinfo_f_11.8" vType="phMotor" speedFactor="1.00" vaporized=""/>
    <tripinfo id="f_29.10" depart="16.00" departLane="R7_2" departPos="2.30" departPosLat="0.00" departSpeed="16.67" departDelay="0.07" arrival="80.00" arrivalLane="R1_3" arrivalPos="244.49" arrivalPosLat="1.15" arrivalSpeed="15.43" duration="64.00" routeLength="965.27" waitingTime="0.00" waitingCount="0" stopTime="0.00" timeLoss="5.42" rerouteNo="0" devices="tripinfo_f_29.10" vType="phMotor" speedFactor="1.00" vaporized=""/>
    <tripinfo id="f_11.1" depart="2.00" departLane="L1_2" departPos="2.30" departPosLat="0.00" departSpeed="8.57" departDelay="0.35" arrival="81.00" arrivalLane="L12_2" arrivalPos="30.10" arrivalPosLat="1.15" arrivalSpeed="16.56" duration="79.00" routeLength="959.13" waitingTime="0.00" waitingCount="0" stopTime="0.00" timeLoss="21.24" rerouteNo="0" devices="tripinfo_f_11.1" vType="phMotor" speedFactor="1.00" vaporized=""/>
    <tripinfo id="f_30.3" depart="8.00" departLane="R7_1" departPos="5.10" departPosLat="0.00" departSpeed="13.60" departDelay="0.83" arrival="81.00" arrivalLane="R1_2" arrivalPos="244.49" arrivalPosLat="-1.50" arrivalSpeed="18.72" duration="73.00" routeLength="962.47" waitingTime="0.00" waitingCount="0" stopTime="0.00" timeLoss="21.58" rerouteNo="0" devices="tripinfo_f_30.3" vType="phCar" speedFactor="1.13" vaporized=""/>
    <tripinfo id="f_30.2" depart="5.00" departLane="R7_1" departPos="5.10" departPosLat="0.00" departSpeed="8.97" departDelay="0.22" arrival="82.00" arrivalLane="R1_0" arrivalPos="244.49" arrivalPosLat="0.00" arrivalSpeed="14.93" duration="77.00" routeLength="962.47" waitingTime="0.00" waitingCount="0" stopTime="0.00" timeLoss="13.75" rerouteNo="0" devices="tripinfo_f_30.2" vType="phCar" speedFactor="0.92" vaporized=""/>
    <tripinfo id="f_12.5" depart="13.00" departLane="L1_1" departPos="5.10" departPosLat="0.00" departSpeed="16.76" departDelay="0.64" arrival="82.00" arrivalLane="L12_1" arrivalPos="30.10" arrivalPosLat="0.00" arrivalSpeed="16.15" duration="69.00" routeLength="956.33" waitingTime="0.00" waitingCount="0" stopTime="0.00" timeLoss="11.25" rerouteNo="0" devices="tripinfo_f_12.5" vType="phCar" speedFactor="1.01" vaporized=""/>
    <tripinfo id="f_11.9" depart="15.00" departLane="L1_0" departPos="2.30" departPosLat="0.00" departSpeed="16.67" departDelay="0.17" arrival="82.00" arrivalLane="L12_2" arrivalPos="30.10" arrivalPosLat="-0.55" arrivalSpeed="16.06" duration="67.00" routeLength="959.13" waitingTime="0.00" waitingCount="0" stopTime="0.00" timeLoss="9.22" rerouteNo="0" devices="tripinfo_f_11.9" vType="phMotor" speedFactor="1.00" vaporized=""/>
    <tripinfo id="f_29.11" depart="18.00" departLane="R7_1" departPos="2.30" departPosLat="0.00" departSpeed="16.67" departDelay="0.48" arrival="82.00" arrivalLane="R1_2" arrivalPos="244.49" arrivalPosLat="1.15" arrivalSpeed="14.89" duration="64.00" routeLength="965.27" waitingTime="0.00" waitingCount="0" stopTime="0.00" timeLoss="6.02" rerouteNo="0" devices="tripinfo_f_29.11" vType="phMotor" speedFactor="1.00" vaporized=""/>
    <tripinfo id="f_12.0" depart="2.00" departLane="L1_0" departPos="5.10" departPosLat="0.00" departSpeed="8.25" departDelay="2.00" arrival="83.00" arrivalLane="L12_0" arrivalPos="30.10" arrivalPosLat="0.00" arrivalSpeed="12.10" duration="81.00" routeLength="956.33" waitingTime="0.00" waitingCount="0" stopTime="0.00" timeLoss="11.49" rerouteNo="0" devices="tripinfo_f_12.0" vType="phCar" speedFactor="0.83" vaporized=""/>
    <tripinfo id="f_29.7" depart="12.00" departLane="R7_1" departPos="2.30" departPosLat="0.00" departSpeed="16.67" departDelay="0.85" arrival="83.00" arrivalLane="R1_1" arrivalPos="244.49" arrivalPosLat="1.15" arrivalSpeed="16.29" duration="71.00" routeLength="965.27" waitingTime="0.00" waitingCount="0" stopTime="0.00" timeLoss="12.38" rerouteNo="0" devices="tripinfo_f_29.7" vType="phMotor" speedFactor="1.00" vaporized=""/>
    <tripinfo id="f_11.10" depart="17.00" departLane="L1_1" departPos="2.30" departPosLat="0.00" departSpeed="16.67" departDelay="0.52" arrival="83.00" arrivalLane="L12_2" arrivalPos="30.10" arrivalPosLat="1.15" arrivalSpeed="15.94" duration="66.00" routeLength="959.13" waitingTime="0.00" waitingCount="0" stopTime="0.00" timeLoss="8.33" rerouteNo="0" devices="tripinfo_f_11.10" vType="phMotor" speedFactor="1.00" vaporized=""/>
    <tripinfo id="f_29.2" depart="4.00" departLane="R7_0" departPos="2.30" departPosLat="0.00" departSpeed="12.42" departDelay="0.81" arrival="84.00" arrivalLane="R1_2" arrivalPos="244.49" arrivalPosLat="-1.05" arrivalSpeed="15.88" duration="80.00" routeLength="965.27" waitingTime="0.00" waitingCount="0" stopTime="0.00" timeLoss="21.71" rerouteNo="0" devices="tripinfo_f_29.2" vType="phMotor" speedFactor="1.00" vaporized=""/>
    <tripinfo id="f_29.9" depart="15.00" departLane="R7_1" departPos="2.30" departPosLat="0.00" departSpeed="16.67" departDelay="0.66" arrival="84.00" arrivalLane="R1_2" arrivalPos="244.49" arrivalPosLat="1.15" arrivalSpeed="15.51" duration="69.00" routeLength="965.27" waitingTime="0.00" waitingCount="0" stopTime="0.00" timeLoss="10.35" rerouteNo="0" devices="tripinfo_f_29.9" vType="phMotor" speedFactor="1.00" vaporized=""/>
    <tripinfo id="f_29.12" depart="20.00" departLane="R7_2" departPos="2.30" departPosLat="0.00" departSpeed="16.67" departDelay="0.88" arrival="84.00" arrivalLane="R1_3" arrivalPos="244.49" arrivalPosLat="1.15" arrivalSpeed="16.06" duration="64.00" routeLength="965.27" waitingTime="0.00" waitingCount="0" stopTime="0.00" timeLoss="5.66" rerouteNo="0" devices="tripinfo_f_29.12" vType="phMotor" speedFactor="1.00" vaporized=""/>
    <tripinfo id="f_33.2" depart="49.00" departLane="R7_0" departPos="2.30" departPosLat="0.00" departSpeed="16.67" departDelay="0.02" arrival="84.00" arrivalLane="univ-road-lower-in_0" arrivalPos="134.83" arrivalPosLat="1.15" arrivalSpeed="13.64" duration="35.00" routeLength="457.66" waitingTime="0.00" waitingCount="0" stopTime="0.00" timeLoss="4.23" rerouteNo="0" devices="tripinfo_f_33.2" vType="phMotor" speedFactor="1.00" vaporized=""/>
    <tripinfo id="f_30.1" depart="3.00" departLane="R7_1" departPos="5.10" departPosLat="0.00" departSpeed="8.47" departDelay="0.61" arrival="85.00" arrivalLane="R1_0" arrivalPos="244.49" arrivalPosLat="0.00" arrivalSpeed="13.71" duration="82.00" routeLength="962.47" waitingTime="0.00" waitingCount="0" stopTime="0.00" timeLoss="11.84" rerouteNo="0" devices="tripinfo_f_30.1" vType="phCar" speedFactor="0.83" vaporized=""/>
    <tripinfo id="f_12.2" depart="5.00" departLane="L1_0" departPos="5.10" departPosLat="0.00" departSpeed="11.49" departDelay="0.05" arrival="85.00" arrivalLane="L12_0" arrivalPos="30.10" arrivalPosLat="0.00" arrivalSpeed="13.07" duration="80.00" routeLength="956.33" waitingTime="0.00" waitingCount="0" stopTime="0.00" timeLoss="13.91" rerouteNo="0" devices="tripinfo_f_12.2" vType="phCar" speedFactor="0.87" vaporized=""/>
    <tripinfo id="f_29.6" depart="10.00" departLane="R7_0" departPos="2.30" departPosLat="0.00" departSpeed="16.67" departDelay="0.44" arrival="85.00" arrivalLane="R1_2" arrivalPos="244.49" arrivalPosLat="1.15" arrivalSpeed="15.31" duration="75.00" routeLength="965.27" waitingTime="0.00" waitingCount="0" stopTime="0.00" timeLoss="16.75" rerouteNo="0" devices="tripinfo_f_29.6" vType="phMotor" speedFactor="1.00" vaporized=""/>
    <tripinfo id="f_12.6" depart="15.00" departLane="L1_2" departPos="5.10" departPosLat="0.00" departSpeed="18.79" departDelay="0.16" arrival="85.00" arrivalLane="L12_2" arrivalPos="30.10" arrivalPosLat="0.00" arrivalSpeed="18.06" duration="70.00" routeLength="956.33" waitingTime="0.00" waitingCount="0" stopTime="0.00" timeLoss="20.96" rerouteNo="0" devices="tripinfo_f_12.6" vType="phCar" speedFactor="1.17" vaporized=""/>
    <tripinfo id="f_11.12" depart="20.00" departLane="L1_0" departPos="2.30" departPosLat="0.00" departSpeed="16.67" departDelay="0.22" arrival="85.00" arrivalLane="L12_1" arrivalPos="30.10" arrivalPosLat="1.15" arrivalSpeed="15.94" duration="65.00" routeLength="959.13" waitingTime="0.00" waitingCount="0" stopTime="0.00" timeLoss="6.62" rerouteNo="0" devices="tripinfo_f_11.12" vType="phMotor" speedFactor="1.00" vaporized=""/>
    <tripinfo id="f_29.13" depart="21.00" departLane="R7_1" departPos="2.30" departPosLat="0.00" departSpeed="16.67" departDelay="0.29" arrival="85.00" arrivalLane="R1_1" arrivalPos="244.49" arrivalPosLat="1.15" arrivalSpeed="15.78" duration="64.00" routeLength="965.27" waitingTime="0.00" waitingCount="0" stopTime="0.00" timeLoss="5.55" rerouteNo="0" devices="tripinfo_f_29.13" vType="phMotor" speedFactor="1.00" vaporized=""/>
    <tripinfo id="f_11.11" depart="19.00" departLane="L1_2" departPos="2.30" departPosLat="0.00" departSpeed="16.67" departDelay="0.87" arrival="86.00" arrivalLane="L12_1" arrivalPos="30.10" arrivalPosLat="1.15" arrivalSpeed="16.27" duration="67.00" routeLength="959.13" waitingTime="0.00" waitingCount="0" stopTime="0.00" timeLoss="9.15" rerouteNo="0" devices="tripinfo_f_11.11" vType="phMotor" speedFactor="1.00" vaporized=""/>
    <tripinfo id="f_29.4" depart="7.00" departLane="R7_0" departPos="2.30" departPosLat="0.00" departSpeed="16.67" departDelay="0.63" arrival="87.00" arrivalLane="R1_0" arrivalPos="244.49" arrivalPosLat="1.15" arrivalSpeed="14.72" duration="80.00" routeLength="965.27" waitingTime="0.00" waitingCount="0" stopTime="0.00" timeLoss="21.31" rerouteNo="0" devices="tripinfo_f_29.4" vType="phMotor" speedFactor="1.00" vaporized=""/>
    <tripinfo id="f_11.6" depart="10.00" departLane="L1_4" departPos="2.30" departPosLat="0.00" departSpeed="16.67" departDelay="0.11" arrival="87.00" arrivalLane="L12_2" arrivalPos="30.10" arrivalPosLat="1.15" arrivalSpeed="16.00" duration="77.00" routeLength="959.13" waitingTime="0.00" waitingCount="0" stopTime="0.00" timeLoss="19.05" rerouteNo="0" devices="tripinfo_f_11.6" vType="phMotor" speedFactor="1.00" vaporized=""/>
    <tripinfo id="f_12.4" depart="10.00" departLane="L1_0" departPos="5.10" departPosLat="0.00" departSpeed="15.52" departDelay="0.11" arrival="87.00" arrivalLane="L12_0" arrivalPos="30.10" arrivalPosLat="0.00" arrivalSpeed="14.12" duration="77.00" routeLength="956.33" waitingTime="0.00" waitingCount="0" stopTime="0.00" timeLoss="14.57" rerouteNo="0" devices="tripinfo_f_12.4" vType="phCar" speedFactor="0.93" vaporized=""/>
    <tripinfo id="f_30.5" depart="12.00" departLane="R7_0" departPos="5.10" departPosLat="0.00" departSpeed="14.78" departDelay="0.06" arrival="87.00" arrivalLane="R1_2" arrivalPos="244.49" arrivalPosLat="0.00" arrivalSpeed="17.82" duration="75.00" routeLength="962.47" waitingTime="0.00" waitingCount="0" stopTime="0.00" timeLoss="24.78" rerouteNo="0" devices="tripinfo_f_30.5" vType="phCar" speedFactor="1.15" vaporized=""/>
    <tripinfo id="f_30.8" depart="20.00" departLane="R7_0" departPos="5.10" departPosLat="0.00" departSpeed="17.18" departDelay="0.89" arrival="87.00" arrivalLane="R1_1" arrivalPos="244.49" arrivalPosLat="0.00" arrivalSpeed="16.95" duration="67.00" routeLength="962.47" waitingTime="0.00" waitingCount="0" stopTime="0.00" timeLoss="10.92" rerouteNo="0" devices="tripinfo_f_30.8" vType="phCar" speedFactor="1.03" vaporized=""/>
    <tripinfo id="f_29.14" depart="23.00" departLane="R7_2" departPos="2.30" departPosLat="0.00" departSpeed="16.67" departDelay="0.70" arrival="87.00" arrivalLane="R1_3" arrivalPos="244.49" arrivalPosLat="1.15" arrivalSpeed="14.95" duration="64.00" routeLength="965.27" waitingTime="0.00" waitingCount="0" stopTime="0.00" timeLoss="5.33" rerouteNo="0" devices="tripinfo_f_29.14" vType="phMotor" speedFactor="1.00" vaporized=""/>
    <tripinfo id="f_11.14" depart="24.00" departLane="L1_1" departPos="2.30" departPosLat="0.00" departSpeed="16.67" departDelay="0.93" arrival="88.00" arrivalLane="L12_0" arrivalPos="30.10" arrivalPosLat="1.15" arrivalSpeed="15.58" duration="64.00" routeLength="959.13" waitingTime="0.00" waitingCount="0" stopTime="0.00" timeLoss="6.06" rerouteNo="0" devices="tripinfo_f_11.14" vType="phMotor" speedFactor="1.00" vaporized=""/>
    <tripinfo id="f_30.7" depart="17.00" departLane="R7_0" departPos="5.10" departPosLat="0.00" departSpeed="16.22" departDelay="0.28" arrival="89.00" arrivalLane="R1_0" arrivalPos="244.49" arrivalPosLat="0.00" arrivalSpeed="14.57" duration="72.00" routeLength="962.47" waitingTime="0.00" waitingCount="0" stopTime="0.00" timeLoss="12.01" rerouteNo="0" devices="tripinfo_f_30.7" vType="phCar" speedFactor="0.97" vaporized=""/>
    <tripinfo id="f_12.7" depart="18.00" departLane="L1_3" departPos="5.10" departPosLat="0.00" departSpeed="19.67" departDelay="0.69" arrival="89.00" arrivalLane="L12_2" arrivalPos="30.10" arrivalPosLat="0.00" arrivalSpeed="17.86" duration="71.00" routeLength="956.33" waitingTime="0.00" waitingCount="0" stopTime="0.00" timeLoss="22.06" rerouteNo="0" devices="tripinfo_f_12.7" vType="phCar" speedFactor="1.18" vaporized=""/>
    <tripinfo id="f_29.15" depart="24.00" departLane="R7_1" departPos="2.30" departPosLat="0.00" departSpeed="16.67" departDelay="0.11" arrival="89.00" arrivalLane="R1_2" arrivalPos="244.49" arrivalPosLat="1.15" arrivalSpeed="15.55" duration="65.00" routeLength="965.27" waitingTime="0.00" waitingCount="0" stopTime="0.00" timeLoss="6.55" rerouteNo="0" devices="tripinfo_f_29.15" vType="phMotor" speedFactor="1.00" vaporized=""/>
    <tripinfo id="f_30.9" depart="22.00" departLane="R7_0" departPos="5.10" departPosLat="0.00" departSpeed="18.20" departDelay="0.50" arrival="90.00" arrivalLane="R1_1" arrivalPos="244.49" arrivalPosLat="0.00" arrivalSpeed="17.27" duration="68.00" routeLength="962.47" waitingTime="0.00" waitingCount="0" stopTime="0.00" timeLoss="15.01" rerouteNo="0" devices="tripinfo_f_30.9" vType="phCar" speedFactor="1.09" vaporized=""/>
    <tripinfo id="f_30.6" depart="15.00" departLane="R7_0" departPos="5.10" departPosLat="0.00" departSpeed="17.00" departDelay="0.67" arrival="91.00" arrivalLane="R1_2" arrivalPos="244.49" arrivalPosLat="0.00" arrivalSpeed="16.45" duration="76.00" routeLength="962.47" waitingTime="0.00" waitingCount="0" stopTime="0.00" timeLoss="19.10" rerouteNo="0" devices="tripinfo_f_30.6" vType="phCar" speedFactor="1.02" vaporized=""/>
    <tripinfo id="f_11.15" depart="25.00" departLane="L1_0" departPos="2.30" departPosLat="0.00" departSpeed="16.67" departDelay="0.28" arrival="91.00" arrivalLane="L12_0" arrivalPos="30.10" arrivalPosLat="1.15" arrivalSpeed="16.20" duration="66.00" routeLength="959.13" waitingTime="0.00" waitingCount="0" stopTime="0.00" timeLoss="7.77" rerouteNo="0" devices="tripinfo_f_11.15" vType="phMotor" speedFactor="1.00" vaporized=""/>
    <tripinfo id="f_12.10" depart="25.00" departLane="L1_4" departPos="5.10" departPosLat="0.00" departSpeed="18.14" departDelay="0.27" arrival="91.00" arrivalLane="L12_2" arrivalPos="30.10" arrivalPosLat="0.00" arrivalSpeed="18.03" duration="66.00" routeLength="956.33" waitingTime="0.00" waitingCount="0" stopTime="0.00" timeLoss="13.11" rerouteNo="0" devices="tripinfo_f_12.10" vType="phCar" speedFactor="1.09" vaporized=""/>
    <tripinfo id="f_29.16" depart="26.00" departLane="R7_0" departPos="2.30" departPosLat="0.00" departSpeed="16.67" departDelay="0.51" arrival="92.00" arrivalLane="R1_0" arrivalPos="244.49" arrivalPosLat="1.15" arrivalSpeed="15.62" duration="66.00" routeLength="965.27" waitingTime="0.00" waitingCount="0" stopTime="0.00" timeLoss="7.40" rerouteNo="0" devices="tripinfo_f_29.16" vType="phMotor" speedFactor="1.00" vaporized=""/>
    <tripinfo id="f_12.8" depart="20.00" departLane="L1_4" departPos="5.10" departPosLat="0.00" departSpeed="15.01" departDelay="0.22" arrival="93.00" arrivalLane="L12_1" arrivalPos="30.10" arrivalPosLat="0.00" arrivalSpeed="14.11" duration="73.00" routeLength="956.33" waitingTime="0.00" waitingCount="0" stopTime="0.00" timeLoss="8.88" rerouteNo="0" devices="tripinfo_f_12.8" vType="phCar" speedFactor="0.90" vaporized=""/>
    <tripinfo id="f_11.16" depart="27.00" departLane="L1_2" departPos="2.30" departPosLat="0.00" departSpeed="16.67" departDelay="0.63" arrival="93.00" arrivalLane="L12_0" arrivalPos="30.10" arrivalPosLat="0.55" arrivalSpeed="15.32" duration="66.00" routeLength="959.13" waitingTime="0.00" waitingCount="0" stopTime="0.00" timeLoss="8.08" rerouteNo="0" devices="tripinfo_f_11.16" vType="phMotor" speedFactor="1.00" vaporized=""/>
    <tripinfo id="f_29.17" depart="28.00" departLane="R7_2" departPos="2.30" departPosLat="0.00" departSpeed="16.67" departDelay="0.92" arrival="93.00" arrivalLane="R1_1" arrivalPos="244.49" arrivalPosLat="1.15" arrivalSpeed="15.35" duration="65.00" routeLength="965.27" waitingTime="0.00" waitingCount="0" stopTime="0.00" timeLoss="6.21" rerouteNo="0" devices="tripinfo_f_29.17" vType="phMotor" speedFactor="1.00" vaporized=""/>
    <tripinfo id="f_29.18" depart="29.00" departLane="R7_0" departPos="2.30" departPosLat="0.00" departSpeed="16.67" departDelay="0.33" arrival="93.00" arrivalLane="R1_0" arrivalPos="244.49" arrivalPosLat="1.15" arrivalSpeed="16.51" duration="64.00" routeLength="965.27" waitingTime="0.00" waitingCount="0" stopTime="0.00" timeLoss="5.84" rerouteNo="0" devices="tripinfo_f_29.18" vType="phMotor" speedFactor="1.00" vaporized=""/>
    <tripinfo id="f_11.18" depart="30.00" departLane="L1_0" departPos="2.30" departPosLat="0.00" departSpeed="16.67" departDelay="0.34" arrival="94.00" arrivalLane="L12_2" arrivalPos="30.10" arrivalPosLat="-1.15" arrivalSpeed="15.94" duration="64.00" routeLength="959.13" waitingTime="0.00" waitingCount="0" stopTime="0.00" timeLoss="6.30" rerouteNo="0" devices="tripinfo_f_11.18" vType="phMotor" speedFactor="1.00" vaporized=""/>