<?xml version="1.0" encoding="UTF-8"?>

<!-- generated on 2024-02-27 21:27:09 by Eclipse SUMO GUI Version v1_19_0+0208-13a9e45677a
<configuration xmlns:xsi="http://www.w3.org/2001/XMLSchema-instance" xsi:noNamespaceSchemaLocation="http://sumo.dlr.de/xsd/sumoConfiguration.xsd">

    <input>
        <net-file value="osm.net.xml.gz"/>
        <route-files value="osm.rou.xml"/>
        <additional-files value="demo.add.xml"/>
    </input>

    <output>
        <tripinfo-output value="tripinfo.xml"/>
    </output>

    <processing>
        <ignore-route-errors value="true"/>
    </processing>

    <routing>
        <device.rerouting.adaptation-steps value="18"/>
        <device.rerouting.adaptation-interval value="10"/>
    </routing>

    <report>
        <verbose value="true"/>
        <duration-log.statistics value="true"/>
        <no-step-log value="true"/>
    </report>

    <traci_server>
        <remote-port value="50166"/>
    </traci_server>

    <gui_only>
        <gui-settings-file value="osm.view.xml"/>
    </gui_only>

</configuration>
-->

<tripinfos xmlns:xsi="http://www.w3.org/2001/XMLSchema-instance" xsi:noNamespaceSchemaLocation="http://sumo.dlr.de/xsd/tripinfo_file.xsd">
    <tripinfo id="f_1.0" depart="3.00" departLane="R7_0" departPos="5.10" departSpeed="0.00" departDelay="3.00" arrival="41.00" arrivalLane="univ-road-upper-in_0" arrivalPos="135.42" arrivalSpeed="12.19" duration="38.00" routeLength="457.77" waitingTime="0.00" waitingCount="0" stopTime="0.00" timeLoss="6.06" rerouteNo="0" devices="tripinfo_f_1.0 routing_f_1.0" vType="DEFAULT_VEHTYPE" speedFactor="0.94" vaporized=""/>
    <tripinfo id="f_1.1" depart="9.00" departLane="R7_0" departPos="5.10" departSpeed="0.00" departDelay="7.00" arrival="44.00" arrivalLane="univ-road-upper-in_0" arrivalPos="135.42" arrivalSpeed="14.11" duration="35.00" routeLength="457.77" waitingTime="0.00" waitingCount="0" stopTime="0.00" timeLoss="5.60" rerouteNo="0" devices="tripinfo_f_1.1 routing_f_1.1" vType="DEFAULT_VEHTYPE" speedFactor="1.03" vaporized=""/>
    <tripinfo id="f_0.0" depart="0.00" departLane="R7_0" departPos="5.10" departSpeed="0.00" departDelay="0.00" arrival="54.00" arrivalLane="thornton-drive-extension-towards_0" arrivalPos="188.45" arrivalSpeed="14.61" duration="54.00" routeLength="787.80" waitingTime="0.00" waitingCount="0" stopTime="0.00" timeLoss="5.83" rerouteNo="1" devices="tripinfo_f_0.0 routing_f_0.0" vType="DEFAULT_VEHTYPE" speedFactor="1.06" vaporized=""/>
    <tripinfo id="f_1.2" depart="15.00" departLane="R7_0" departPos="5.10" departSpeed="0.00" departDelay="11.00" arrival="54.00" arrivalLane="univ-road-upper-in_0" arrivalPos="135.42" arrivalSpeed="11.05" duration="39.00" routeLength="457.77" waitingTime="0.00" waitingCount="0" stopTime="0.00" timeLoss="5.11" rerouteNo="0" devices="tripinfo_f_1.2 routing_f_1.2" vType="DEFAULT_VEHTYPE" speedFactor="0.89" vaporized=""/>
    <tripinfo id="f_1.3" depart="21.00" departLane="R7_0" departPos="5.10" departSpeed="0.00" departDelay="15.00" arrival="58.00" arrivalLane="univ-road-upper-in_0" arrivalPos="135.42" arrivalSpeed="14.77" duration="37.00" routeLength="457.77" waitingTime="0.00" waitingCount="0" stopTime="0.00" timeLoss="8.75" rerouteNo="0" devices="tripinfo_f_1.3 routing_f_1.3" vType="DEFAULT_VEHTYPE" speedFactor="1.09" vaporized=""/>
    <tripinfo id="f_0.1" depart="6.00" departLane="R7_0" departPos="5.10" departSpeed="0.00" departDelay="4.00" arrival="61.00" arrivalLane="thornton-drive-extension-towards_0" arrivalPos="188.45" arrivalSpeed="14.90" duration="55.00" routeLength="787.80" waitingTime="0.00" waitingCount="0" stopTime="0.00" timeLoss="8.34" rerouteNo="1" devices="tripinfo_f_0.1 routing_f_0.1" vType="DEFAULT_VEHTYPE" speedFactor="1.08" vaporized=""/>
    <tripinfo id="f_1.4" depart="27.00" departLane="R7_0" departPos="5.10" departSpeed="0.00" departDelay="19.00" arrival="61.00" arrivalLane="univ-road-upper-in_0" arrivalPos="135.42" arrivalSpeed="14.31" duration="34.00" routeLength="457.77" waitingTime="0.00" waitingCount="0" stopTime="0.00" timeLoss="6.93" rerouteNo="0" devices="tripinfo_f_1.4 routing_f_1.4" vType="DEFAULT_VEHTYPE" speedFactor="1.12" vaporized=""/>
    <tripinfo id="f_2.0" depart="0.00" departLane="L1_0" departPos="5.10" departSpeed="0.00" departDelay="0.00" arrival="62.00" arrivalLane="L12_0" arrivalPos="30.10" arrivalSpeed="16.67" duration="62.00" routeLength="956.27" waitingTime="0.00" waitingCount="0" stopTime="0.00" timeLoss="4.80" rerouteNo="1" devices="tripinfo_f_2.0 routing_f_2.0" vType="DEFAULT_VEHTYPE" speedFactor="1.01" vaporized=""/>
    <tripinfo id="f_0.2" depart="12.00" departLane="R7_0" departPos="5.10" departSpeed="0.00" departDelay="8.00" arrival="67.00" arrivalLane="thornton-drive-extension-towards_0" arrivalPos="188.45" arrivalSpeed="13.55" duration="55.00" routeLength="787.80" waitingTime="0.00" waitingCount="0" stopTime="0.00" timeLoss="6.27" rerouteNo="1" devices="tripinfo_f_0.2 routing_f_0.2" vType="DEFAULT_VEHTYPE" speedFactor="1.05" vaporized=""/>
    <tripinfo id="f_2.3" depart="9.00" departLane="L1_0" departPos="5.10" departSpeed="0.00" departDelay="3.00" arrival="71.00" arrivalLane="L12_1" arrivalPos="30.10" arrivalSpeed="16.46" duration="62.00" routeLength="956.27" waitingTime="0.00" waitingCount="0" stopTime="0.00" timeLoss="5.41" rerouteNo="1" devices="tripinfo_f_2.3 routing_f_2.3" vType="DEFAULT_VEHTYPE" speedFactor="1.03" vaporized=""/>
    <tripinfo id="f_1.5" depart="33.00" departLane="R7_0" departPos="5.10" departSpeed="0.00" departDelay="23.00" arrival="73.00" arrivalLane="univ-road-upper-in_0" arrivalPos="135.42" arrivalSpeed="11.60" duration="40.00" routeLength="457.77" waitingTime="0.00" waitingCount="0" stopTime="0.00" timeLoss="5.74" rerouteNo="0" devices="tripinfo_f_1.5 routing_f_1.5" vType="DEFAULT_VEHTYPE" speedFactor="0.88" vaporized=""/>
    <tripinfo id="f_2.2" depart="6.00" departLane="L1_0" departPos="5.10" departSpeed="0.00" departDelay="2.00" arrival="75.00" arrivalLane="L12_1" arrivalPos="30.10" arrivalSpeed="14.76" duration="69.00" routeLength="956.27" waitingTime="0.00" waitingCount="0" stopTime="0.00" timeLoss="7.75" rerouteNo="1" devices="tripinfo_f_2.2 routing_f_2.2" vType="DEFAULT_VEHTYPE" speedFactor="0.94" vaporized=""/>
    <tripinfo id="f_1.6" depart="39.00" departLane="R7_0" departPos="5.10" departSpeed="0.00" departDelay="27.00" arrival="75.00" arrivalLane="univ-road-upper-in_0" arrivalPos="135.42" arrivalSpeed="15.15" duration="36.00" routeLength="457.77" waitingTime="0.00" waitingCount="0" stopTime="0.00" timeLoss="9.48" rerouteNo="0" devices="tripinfo_f_1.6 routing_f_1.6" vType="DEFAULT_VEHTYPE" speedFactor="1.16" vaporized=""/>
    <tripinfo id="f_2.4" depart="12.00" departLane="L1_0" departPos="5.10" departSpeed="0.00" departDelay="4.00" arrival="77.00" arrivalLane="L12_1" arrivalPos="30.10" arrivalSpeed="15.60" duration="65.00" routeLength="956.27" waitingTime="0.00" waitingCount="0" stopTime="0.00" timeLoss="6.76" rerouteNo="1" devices="tripinfo_f_2.4 routing_f_2.4" vType="DEFAULT_VEHTYPE" speedFactor="0.99" vaporized=""/>
    <tripinfo id="f_2.1" depart="2.00" departLane="L1_0" departPos="5.10" departSpeed="0.00" departDelay="0.00" arrival="78.00" arrivalLane="L12_0" arrivalPos="30.10" arrivalSpeed="13.55" duration="76.00" routeLength="956.27" waitingTime="0.00" waitingCount="0" stopTime="0.00" timeLoss="6.85" rerouteNo="1" devices="tripinfo_f_2.1 routing_f_2.1" vType="DEFAULT_VEHTYPE" speedFactor="0.83" vaporized=""/>
    <tripinfo id="f_2.6" depart="18.00" departLane="L1_0" departPos="5.10" departSpeed="0.00" departDelay="6.00" arrival="81.00" arrivalLane="L12_1" arrivalPos="30.10" arrivalSpeed="15.76" duration="63.00" routeLength="956.27" waitingTime="0.00" waitingCount="0" stopTime="0.00" timeLoss="6.20" rerouteNo="1" devices="tripinfo_f_2.6 routing_f_2.6" vType="DEFAULT_VEHTYPE" speedFactor="1.02" vaporized=""/>
    <tripinfo id="f_2.5" depart="15.00" departLane="L1_0" departPos="5.10" departSpeed="0.00" departDelay="5.00" arrival="82.00" arrivalLane="L12_0" arrivalPos="30.10" arrivalSpeed="14.90" duration="67.00" routeLength="956.27" waitingTime="0.00" waitingCount="0" stopTime="0.00" timeLoss="5.90" rerouteNo="1" devices="tripinfo_f_2.5 routing_f_2.5" vType="DEFAULT_VEHTYPE" speedFactor="0.94" vaporized=""/>
    <tripinfo id="f_1.7" depart="45.00" departLane="R7_0" departPos="5.10" departSpeed="0.00" departDelay="31.00" arrival="82.00" arrivalLane="univ-road-upper-in_0" arrivalPos="135.42" arrivalSpeed="13.11" duration="37.00" routeLength="457.77" waitingTime="0.00" waitingCount="0" stopTime="0.00" timeLoss="5.63" rerouteNo="0" devices="tripinfo_f_1.7 routing_f_1.7" vType="DEFAULT_VEHTYPE" speedFactor="0.97" vaporized=""/>
    <tripinfo id="f_0.3" depart="18.00" departLane="R7_0" departPos="5.10" departSpeed="0.00" departDelay="12.00" arrival="84.00" arrivalLane="thornton-drive-extension-towards_0" arrivalPos="188.45" arrivalSpeed="11.27" duration="66.00" routeLength="787.80" waitingTime="0.00" waitingCount="0" stopTime="0.00" timeLoss="6.60" rerouteNo="1" devices="tripinfo_f_0.3 routing_f_0.3" vType="DEFAULT_VEHTYPE" speedFactor="0.86" vaporized=""/>
    <tripinfo id="f_0.4" depart="24.00" departLane="R7_0" departPos="5.10" departSpeed="0.00" departDelay="16.00" arrival="85.00" arrivalLane="thornton-drive-extension-towards_0" arrivalPos="188.45" arrivalSpeed="14.13" duration="61.00" routeLength="787.80" waitingTime="0.00" waitingCount="0" stopTime="0.00" timeLoss="12.71" rerouteNo="1" devices="tripinfo_f_0.4 routing_f_0.4" vType="DEFAULT_VEHTYPE" speedFactor="1.05" vaporized=""/>
    <tripinfo id="f_0.5" depart="30.00" departLane="R7_0" departPos="5.10" departSpeed="0.00" departDelay="20.00" arrival="91.00" arrivalLane="thornton-drive-extension-towards_0" arrivalPos="188.45" arrivalSpeed="11.94" duration="61.00" routeLength="787.80" waitingTime="0.00" waitingCount="0" stopTime="0.00" timeLoss="6.19" rerouteNo="1" devices="tripinfo_f_0.5 routing_f_0.5" vType="DEFAULT_VEHTYPE" speedFactor="0.93" vaporized=""/>
    <tripinfo id="f_2.7" depart="21.00" departLane="L1_0" departPos="5.10" departSpeed="0.00" departDelay="7.00" arrival="92.00" arrivalLane="L12_0" arrivalPos="30.10" arrivalSpeed="14.31" duration="71.00" routeLength="956.27" waitingTime="0.00" waitingCount="0" stopTime="0.00" timeLoss="6.04" rerouteNo="1" devices="tripinfo_f_2.7 routing_f_2.7" vType="DEFAULT_VEHTYPE" speedFactor="0.89" vaporized=""/>
    <tripinfo id="f_1.8" depart="51.00" departLane="R7_0" departPos="5.10" departSpeed="0.00" departDelay="35.00" arrival="92.00" arrivalLane="univ-road-upper-in_0" arrivalPos="135.42" arrivalSpeed="11.14" duration="41.00" routeLength="457.77" waitingTime="0.00" waitingCount="0" stopTime="0.00" timeLoss="6.70" rerouteNo="0" devices="tripinfo_f_1.8 routing_f_1.8" vType="DEFAULT_VEHTYPE" speedFactor="0.87" vaporized=""/>
    <tripinfo id="f_2.10" depart="30.00" departLane="L1_0" departPos="5.10" departSpeed="0.00" departDelay="10.00" arrival="93.00" arrivalLane="L12_1" arrivalPos="30.10" arrivalSpeed="16.28" duration="63.00" routeLength="956.27" waitingTime="0.00" waitingCount="0" stopTime="0.00" timeLoss="5.79" rerouteNo="1" devices="tripinfo_f_2.10 routing_f_2.10" vType="DEFAULT_VEHTYPE" speedFactor="1.01" vaporized=""/>
    <tripinfo id="f_2.8" depart="24.00" departLane="L1_0" departPos="5.10" departSpeed="0.00" departDelay="8.00" arrival="94.00" arrivalLane="L12_0" arrivalPos="30.10" arrivalSpeed="15.00" duration="70.00" routeLength="956.27" waitingTime="0.00" waitingCount="0" stopTime="0.00" timeLoss="6.68" rerouteNo="1" devices="tripinfo_f_2.8 routing_f_2.8" vType="DEFAULT_VEHTYPE" speedFactor="0.92" vaporized=""/>
    <tripinfo id="f_1.9" depart="57.00" departLane="R7_0" departPos="5.10" departSpeed="0.00" departDelay="39.00" arrival="94.00" arrivalLane="univ-road-upper-in_0" arrivalPos="135.42" arrivalSpeed="15.12" duration="37.00" routeLength="457.77" waitingTime="0.00" waitingCount="0" stopTime="0.00" timeLoss="10.00" rerouteNo="0" devices="tripinfo_f_1.9 routing_f_1.9" vType="DEFAULT_VEHTYPE" speedFactor="1.13" vaporized=""/>
    <tripinfo id="f_2.9" depart="27.00" departLane="L1_0" departPos="5.10" departSpeed="0.00" departDelay="9.00" arrival="95.00" arrivalLane="L12_0" arrivalPos="30.10" arrivalSpeed="14.58" duration="68.00" routeLength="956.27" waitingTime="0.00" waitingCount="0" stopTime="0.00" timeLoss="6.33" rerouteNo="1" devices="tripinfo_f_2.9 routing_f_2.9" vType="DEFAULT_VEHTYPE" speedFactor="0.93" vaporized=""/>
    <tripinfo id="f_2.12" depart="36.00" departLane="L1_0" departPos="5.10" departSpeed="0.00" departDelay="12.00" arrival="96.00" arrivalLane="L12_1" arrivalPos="30.10" arrivalSpeed="17.79" duration="60.00" routeLength="956.27" waitingTime="0.00" waitingCount="0" stopTime="0.00" timeLoss="7.17" rerouteNo="1" devices="tripinfo_f_2.12 routing_f_2.12" vType="DEFAULT_VEHTYPE" speedFactor="1.10" vaporized=""/>
    <tripinfo id="f_1.10" depart="63.00" departLane="R7_0" departPos="5.10" departSpeed="0.00" departDelay="43.00" arrival="97.00" arrivalLane="univ-road-upper-in_0" arrivalPos="135.42" arrivalSpeed="15.98" duration="34.00" routeLength="457.77" waitingTime="1.00" waitingCount="1" stopTime="0.00" timeLoss="7.44" rerouteNo="0" devices="tripinfo_f_1.10 routing_f_1.10" vType="DEFAULT_VEHTYPE" speedFactor="1.15" vaporized=""/>
    <tripinfo id="f_2.11" depart="33.00" departLane="L1_0" departPos="5.10" departSpeed="0.00" departDelay="11.00" arrival="97.00" arrivalLane="L12_0" arrivalPos="30.10" arrivalSpeed="15.76" duration="64.00" routeLength="956.27" waitingTime="0.00" waitingCount="0" stopTime="0.00" timeLoss="7.28" rerouteNo="1" devices="tripinfo_f_2.11 routing_f_2.11" vType="DEFAULT_VEHTYPE" speedFactor="1.02" vaporized=""/>
    <tripinfo id="f_0.6" depart="36.00" departLane="R7_0" departPos="5.10" departSpeed="0.00" departDelay="24.00" arrival="99.00" arrivalLane="thornton-drive-extension-towards_0" arrivalPos="188.45" arrivalSpeed="12.78" duration="63.00" routeLength="787.80" waitingTime="0.00" waitingCount="0" stopTime="0.00" timeLoss="8.04" rerouteNo="1" devices="tripinfo_f_0.6 routing_f_0.6" vType="DEFAULT_VEHTYPE" speedFactor="0.94" vaporized=""/>
    <tripinfo id="f_0.7" depart="42.00" departLane="R7_0" departPos="5.10" departSpeed="0.00" departDelay="28.00" arrival="100.00" arrivalLane="thornton-drive-extension-towards_0" arrivalPos="188.45" arrivalSpeed="13.78" duration="58.00" routeLength="787.80" waitingTime="0.00" waitingCount="0" stopTime="0.00" timeLoss="7.75" rerouteNo="1" devices="tripinfo_f_0.7 routing_f_0.7" vType="DEFAULT_VEHTYPE" speedFactor="1.01" vaporized=""/>
    <tripinfo id="f_2.14" depart="43.00" departLane="L1_0" departPos="5.10" departSpeed="0.00" departDelay="15.00" arrival="104.00" arrivalLane="L12_1" arrivalPos="30.10" arrivalSpeed="16.55" duration="61.00" routeLength="956.27" waitingTime="0.00" waitingCount="0" stopTime="0.00" timeLoss="5.88" rerouteNo="1" devices="tripinfo_f_2.14 routing_f_2.14" vType="DEFAULT_VEHTYPE" speedFactor="1.04" vaporized=""/>
    <tripinfo id="f_1.11" depart="70.00" departLane="R7_0" departPos="5.10" departSpeed="0.00" departDelay="48.00" arrival="106.00" arrivalLane="univ-road-upper-in_0" arrivalPos="135.42" arrivalSpeed="13.12" duration="36.00" routeLength="457.77" waitingTime="0.00" waitingCount="0" stopTime="0.00" timeLoss="5.93" rerouteNo="0" devices="tripinfo_f_1.11 routing_f_1.11" vType="DEFAULT_VEHTYPE" speedFactor="0.99" vaporized=""/>
    <tripinfo id="f_2.13" depart="39.00" departLane="L1_0" departPos="5.10" departSpeed="0.00" departDelay="13.00" arrival="107.00" arrivalLane="L12_0" arrivalPos="30.10" arrivalSpeed="15.04" duration="68.00" routeLength="956.27" waitingTime="1.00" waitingCount="1" stopTime="0.00" timeLoss="7.72" rerouteNo="1" devices="tripinfo_f_2.13 routing_f_2.13" vType="DEFAULT_VEHTYPE" speedFactor="0.96" vaporized=""/>
    <tripinfo id="f_1.12" depart="76.00" departLane="R7_0" departPos="5.10" departSpeed="0.00" departDelay="52.00" arrival="109.00" arrivalLane="univ-road-upper-in_0" arrivalPos="135.42" arrivalSpeed="15.87" duration="33.00" routeLength="457.77" waitingTime="0.00" waitingCount="0" stopTime="0.00" timeLoss="7.68" rerouteNo="0" devices="tripinfo_f_1.12 routing_f_1.12" vType="DEFAULT_VEHTYPE" speedFactor="1.18" vaporized=""/>
    <tripinfo id="f_2.17" depart="52.00" departLane="L1_0" departPos="5.10" departSpeed="0.00" departDelay="18.00" arrival="111.00" arrivalLane="L12_1" arrivalPos="30.10" arrivalSpeed="17.42" duration="59.00" routeLength="956.27" waitingTime="0.00" waitingCount="0" stopTime="0.00" timeLoss="6.10" rerouteNo="1" devices="tripinfo_f_2.17 routing_f_2.17" vType="DEFAULT_VEHTYPE" speedFactor="1.10" vaporized=""/>
    <tripinfo id="f_0.8" depart="48.00" departLane="R7_0" departPos="5.10" departSpeed="0.00" departDelay="32.00" arrival="116.00" arrivalLane="thornton-drive-extension-towards_0" arrivalPos="188.45" arrivalSpeed="10.90" duration="68.00" routeLength="787.80" waitingTime="0.00" waitingCount="0" stopTime="0.00" timeLoss="6.52" rerouteNo="1" devices="tripinfo_f_0.8 routing_f_0.8" vType="DEFAULT_VEHTYPE" speedFactor="0.83" vaporized=""/>
    <tripinfo id="f_2.15" depart="46.00" departLane="L1_0" departPos="5.10" departSpeed="0.00" departDelay="16.00" arrival="116.00" arrivalLane="L12_0" arrivalPos="30.10" arrivalSpeed="14.84" duration="70.00" routeLength="956.27" waitingTime="0.00" waitingCount="0" stopTime="0.00" timeLoss="5.90" rerouteNo="1" devices="tripinfo_f_2.15 routing_f_2.15" vType="DEFAULT_VEHTYPE" speedFactor="0.90" vaporized=""/>
    <tripinfo id="f_0.9" depart="54.00" departLane="R7_0" departPos="5.10" departSpeed="0.00" departDelay="36.00" arrival="118.00" arrivalLane="thornton-drive-extension-towards_0" arrivalPos="188.45" arrivalSpeed="13.00" duration="64.00" routeLength="787.80" waitingTime="0.00" waitingCount="0" stopTime="0.00" timeLoss="10.30" rerouteNo="1" devices="tripinfo_f_0.9 routing_f_0.9" vType="DEFAULT_VEHTYPE" speedFactor="0.95" vaporized=""/>
    <tripinfo id="f_1.13" depart="82.00" departLane="R7_0" departPos="5.10" departSpeed="0.00" departDelay="56.00" arrival="119.00" arrivalLane="univ-road-upper-in_0" arrivalPos="135.42" arrivalSpeed="13.61" duration="37.00" routeLength="457.77" waitingTime="0.00" waitingCount="0" stopTime="0.00" timeLoss="7.03" rerouteNo="0" devices="tripinfo_f_1.13 routing_f_1.13" vType="DEFAULT_VEHTYPE" speedFactor="1.03" vaporized=""/>
    <tripinfo id="f_0.10" depart="60.00" departLane="R7_0" departPos="5.10" departSpeed="0.00" departDelay="40.00" arrival="120.00" arrivalLane="thornton-drive-extension-towards_0" arrivalPos="188.45" arrivalSpeed="15.60" duration="60.00" routeLength="787.80" waitingTime="0.00" waitingCount="0" stopTime="0.00" timeLoss="16.38" rerouteNo="1" devices="tripinfo_f_0.10 routing_f_0.10" vType="DEFAULT_VEHTYPE" speedFactor="1.18" vaporized=""/>
    <tripinfo id="f_0.11" depart="67.00" departLane="R7_0" departPos="5.10" departSpeed="0.00" departDelay="45.00" arrival="121.00" arrivalLane="thornton-drive-extension-towards_0" arrivalPos="188.45" arrivalSpeed="15.16" duration="54.00" routeLength="787.80" waitingTime="0.00" waitingCount="0" stopTime="0.00" timeLoss="10.77" rerouteNo="1" devices="tripinfo_f_0.11 routing_f_0.11" vType="DEFAULT_VEHTYPE" speedFactor="1.17" vaporized=""/>
    <tripinfo id="f_1.14" depart="88.00" departLane="R7_0" departPos="5.10" departSpeed="0.00" departDelay="60.00" arrival="123.00" arrivalLane="univ-road-upper-in_0" arrivalPos="135.42" arrivalSpeed="14.36" duration="35.00" routeLength="457.77" waitingTime="0.00" waitingCount="0" stopTime="0.00" timeLoss="5.73" rerouteNo="0" devices="tripinfo_f_1.14 routing_f_1.14" vType="DEFAULT_VEHTYPE" speedFactor="1.04" vaporized=""/>
    <tripinfo id="f_2.16" depart="49.00" departLane="L1_0" departPos="5.10" departSpeed="0.00" departDelay="17.00" arrival="123.00" arrivalLane="L12_0" arrivalPos="30.10" arrivalSpeed="13.12" duration="74.00" routeLength="956.27" waitingTime="0.00" waitingCount="0" stopTime="0.00" timeLoss="6.23" rerouteNo="1" devices="tripinfo_f_2.16 routing_f_2.16" vType="DEFAULT_VEHTYPE" speedFactor="0.85" vaporized=""/>
    <tripinfo id="f_2.19" depart="58.00" departLane="L1_0" departPos="5.10" departSpeed="0.00" departDelay="20.00" arrival="124.00" arrivalLane="L12_1" arrivalPos="30.10" arrivalSpeed="14.98" duration="66.00" routeLength="956.27" waitingTime="0.00" waitingCount="0" stopTime="0.00" timeLoss="6.24" rerouteNo="1" devices="tripinfo_f_2.19 routing_f_2.19" vType="DEFAULT_VEHTYPE" speedFactor="0.97" vaporized=""/>
    <tripinfo id="f_2.20" depart="61.00" departLane="L1_0" departPos="5.10" departSpeed="0.00" departDelay="21.00" arrival="124.00" arrivalLane="L12_2" arrivalPos="30.10" arrivalSpeed="16.93" duration="63.00" routeLength="956.27" waitingTime="0.00" waitingCount="0" stopTime="0.00" timeLoss="6.05" rerouteNo="1" devices="tripinfo_f_2.20 routing_f_2.20" vType="DEFAULT_VEHTYPE" speedFactor="1.02" vaporized=""/>
    <tripinfo id="f_2.18" depart="55.00" departLane="L1_0" departPos="5.10" departSpeed="0.00" departDelay="19.00" arrival="126.00" arrivalLane="L12_0" arrivalPos="30.10" arrivalSpeed="14.81" duration="71.00" routeLength="956.27" waitingTime="0.00" waitingCount="0" stopTime="0.00" timeLoss="7.00" rerouteNo="1" devices="tripinfo_f_2.18 routing_f_2.18" vType="DEFAULT_VEHTYPE" speedFactor="0.90" vaporized=""/>
    <tripinfo id="f_2.22" depart="67.00" departLane="L1_0" departPos="5.10" departSpeed="0.00" departDelay="23.00" arrival="129.00" arrivalLane="L12_1" arrivalPos="30.10" arrivalSpeed="16.44" duration="62.00" routeLength="956.27" waitingTime="0.00" waitingCount="0" stopTime="0.00" timeLoss="6.36" rerouteNo="1" devices="tripinfo_f_2.22 routing_f_2.22" vType="DEFAULT_VEHTYPE" speedFactor="1.04" vaporized=""/>
    <tripinfo id="f_1.15" depart="94.00" departLane="R7_0" departPos="5.10" departSpeed="0.00" departDelay="64.00" arrival="130.00" arrivalLane="univ-road-upper-in_0" arrivalPos="135.42" arrivalSpeed="12.79" duration="36.00" routeLength="457.77" waitingTime="0.00" waitingCount="0" stopTime="0.00" timeLoss="5.87" rerouteNo="0" devices="tripinfo_f_1.15 routing_f_1.15" vType="DEFAULT_VEHTYPE" speedFactor="1.00" vaporized=""/>
    <tripinfo id="f_0.12" depart="73.00" departLane="R7_0" departPos="5.10" departSpeed="0.00" departDelay="49.00" arrival="131.00" arrivalLane="thornton-drive-extension-towards_0" arrivalPos="188.45" arrivalSpeed="12.71" duration="58.00" routeLength="787.80" waitingTime="0.00" waitingCount="0" stopTime="0.00" timeLoss="6.02" rerouteNo="1" devices="tripinfo_f_0.12 routing_f_0.12" vType="DEFAULT_VEHTYPE" speedFactor="0.97" vaporized=""/>
    <tripinfo id="f_2.21" depart="64.00" departLane="L1_0" departPos="5.10" departSpeed="0.00" departDelay="22.00" arrival="135.00" arrivalLane="L12_0" arrivalPos="30.10" arrivalSpeed="13.74" duration="71.00" routeLength="956.27" waitingTime="0.00" waitingCount="0" stopTime="0.00" timeLoss="5.69" rerouteNo="1" devices="tripinfo_f_2.21 routing_f_2.21" vType="DEFAULT_VEHTYPE" speedFactor="0.88" vaporized=""/>
    <tripinfo id="f_2.23" depart="70.00" departLane="L1_0" departPos="5.10" departSpeed="0.00" departDelay="24.00" arrival="137.00" arrivalLane="L12_0" arrivalPos="30.10" arrivalSpeed="15.88" duration="67.00" routeLength="956.27" waitingTime="0.00" waitingCount="0" stopTime="0.00" timeLoss="7.26" rerouteNo="1" devices="tripinfo_f_2.23 routing_f_2.23" vType="DEFAULT_VEHTYPE" speedFactor="0.97" vaporized=""/>
    <tripinfo id="f_2.24" depart="73.00" departLane="L1_0" departPos="5.10" departSpeed="0.00" departDelay="25.00" arrival="139.00" arrivalLane="L12_0" arrivalPos="30.10" arrivalSpeed="15.53" duration="66.00" routeLength="956.27" waitingTime="0.00" waitingCount="0" stopTime="0.00" timeLoss="5.73" rerouteNo="1" devices="tripinfo_f_2.24 routing_f_2.24" vType="DEFAULT_VEHTYPE" speedFactor="0.96" vaporized=""/>
    <tripinfo id="f_2.25" depart="76.00" departLane="L1_0" departPos="5.10" departSpeed="0.00" departDelay="26.00" arrival="141.00" arrivalLane="L12_0" arrivalPos="30.10" arrivalSpeed="15.67" duration="65.00" routeLength="956.27" waitingTime="0.00" waitingCount="0" stopTime="0.00" timeLoss="5.99" rerouteNo="1" devices="tripinfo_f_2.25 routing_f_2.25" vType="DEFAULT_VEHTYPE" speedFactor="0.98" vaporized=""/>
    <tripinfo id="f_2.26" depart="79.00" departLane="L1_0" departPos="5.10" departSpeed="0.00" departDelay="27.00" arrival="141.00" arrivalLane="L12_1" arrivalPos="30.10" arrivalSpeed="16.77" duration="62.00" routeLength="956.27" waitingTime="0.00" waitingCount="0" stopTime="0.00" timeLoss="5.94" rerouteNo="1" devices="tripinfo_f_2.26 routing_f_2.26" vType="DEFAULT_VEHTYPE" speedFactor="1.03" vaporized=""/>
    <tripinfo id="f_0.13" depart="79.00" departLane="R7_0" departPos="5.10" departSpeed="0.00" departDelay="53.00" arrival="142.00" arrivalLane="thornton-drive-extension-towards_0" arrivalPos="188.45" arrivalSpeed="12.19" duration="63.00" routeLength="787.80" waitingTime="0.00" waitingCount="0" stopTime="0.00" timeLoss="6.60" rerouteNo="1" devices="tripinfo_f_0.13 routing_f_0.13" vType="DEFAULT_VEHTYPE" speedFactor="0.90" vaporized=""/>
    <tripinfo id="f_0.14" depart="85.00" departLane="R7_0" departPos="5.10" departSpeed="0.00" departDelay="57.00" arrival="144.00" arrivalLane="thornton-drive-extension-towards_0" arrivalPos="188.45" arrivalSpeed="13.88" duration="59.00" routeLength="787.80" waitingTime="0.00" waitingCount="0" stopTime="0.00" timeLoss="11.95" rerouteNo="1" devices="tripinfo_f_0.14 routing_f_0.14" vType="DEFAULT_VEHTYPE" speedFactor="1.09" vaporized=""/>
    <tripinfo id="f_2.27" depart="82.00" departLane="L1_0" departPos="5.10" departSpeed="0.00" departDelay="28.00" arrival="247.00" arrivalLane="L12_0" arrivalPos="30.10" arrivalSpeed="15.34" duration="165.00" routeLength="956.27" waitingTime="93.00" waitingCount="1" stopTime="0.00" timeLoss="105.61" rerouteNo="1" devices="tripinfo_f_2.27 routing_f_2.27" vType="DEFAULT_VEHTYPE" speedFactor="0.97" vaporized=""/>
    <tripinfo id="f_2.28" depart="85.00" departLane="L1_0" departPos="5.10" departSpeed="0.00" departDelay="29.00" arrival="248.00" arrivalLane="L12_1" arrivalPos="30.10" arrivalSpeed="16.32" duration="163.00" routeLength="956.27" waitingTime="93.00" waitingCount="1" stopTime="0.00" timeLoss="105.24" rerouteNo="1" devices="tripinfo_f_2.28 routing_f_2.28" vType="DEFAULT_VEHTYPE" speedFactor="1.00" vaporized=""/>
    <tripinfo id="f_2.29" depart="88.00" departLane="L1_0" departPos="5.10" departSpeed="0.00" departDelay="30.00" arrival="249.00" arrivalLane="L12_0" arrivalPos="30.10" arrivalSpeed="16.12" duration="161.00" routeLength="956.27" waitingTime="90.00" waitingCount="1" stopTime="0.00" timeLoss="104.35" rerouteNo="1" devices="tripinfo_f_2.29 routing_f_2.29" vType="DEFAULT_VEHTYPE" speedFactor="1.02" vaporized=""/>
    <tripinfo id="f_2.32" depart="97.00" departLane="L1_0" departPos="5.10" departSpeed="0.00" departDelay="33.00" arrival="258.00" arrivalLane="L12_1" arrivalPos="30.10" arrivalSpeed="17.78" duration="161.00" routeLength="956.27" waitingTime="94.00" waitingCount="1" stopTime="0.00" timeLoss="108.99" rerouteNo="1" devices="tripinfo_f_2.32 routing_f_2.32" vType="DEFAULT_VEHTYPE" speedFactor="1.12" vaporized=""/>
    <tripinfo id="f_2.31" depart="94.00" departLane="L1_0" departPos="5.10" departSpeed="0.00" departDelay="32.00" arrival="259.00" arrivalLane="L12_0" arrivalPos="30.10" arrivalSpeed="16.93" duration="165.00" routeLength="956.27" waitingTime="97.00" waitingCount="1" stopTime="0.00" timeLoss="109.97" rerouteNo="1" devices="tripinfo_f_2.31 routing_f_2.31" vType="DEFAULT_VEHTYPE" speedFactor="1.06" vaporized=""/>
    <tripinfo id="f_2.38" depart="115.00" departLane="L1_0" departPos="5.10" departSpeed="0.00" departDelay="39.00" arrival="260.00" arrivalLane="L12_2" arrivalPos="30.10" arrivalSpeed="18.82" duration="145.00" routeLength="956.27" waitingTime="72.00" waitingCount="2" stopTime="0.00" timeLoss="95.38" rerouteNo="1" devices="tripinfo_f_2.38 routing_f_2.38" vType="DEFAULT_VEHTYPE" speedFactor="1.18" vaporized=""/>
    <tripinfo id="f_2.33" depart="100.00" departLane="L1_0" departPos="5.10" departSpeed="0.00" departDelay="34.00" arrival="262.00" arrivalLane="L12_1" arrivalPos="30.10" arrivalSpeed="15.72" duration="162.00" routeLength="956.27" waitingTime="89.00" waitingCount="1" stopTime="0.00" timeLoss="101.12" rerouteNo="1" devices="tripinfo_f_2.33 routing_f_2.33" vType="DEFAULT_VEHTYPE" speedFactor="0.96" vaporized=""/>
    <tripinfo id="f_2.46" depart="139.00" departLane="L1_0" departPos="5.10" departSpeed="0.00" departDelay="47.00" arrival="262.00" arrivalLane="L12_2" arrivalPos="30.10" arrivalSpeed="18.26" duration="123.00" routeLength="956.27" waitingTime="47.00" waitingCount="3" stopTime="0.00" timeLoss="70.98" rerouteNo="1" devices="tripinfo_f_2.46 routing_f_2.46" vType="DEFAULT_VEHTYPE" speedFactor="1.11" vaporized=""/>
    <tripinfo id="f_2.35" depart="106.00" departLane="L1_0" departPos="5.10" departSpeed="0.00" departDelay="36.00" arrival="263.00" arrivalLane="L12_1" arrivalPos="30.10" arrivalSpeed="16.20" duration="157.00" routeLength="956.27" waitingTime="85.00" waitingCount="1" stopTime="0.00" timeLoss="101.28" rerouteNo="1" devices="tripinfo_f_2.35 routing_f_2.35" vType="DEFAULT_VEHTYPE" speedFactor="1.03" vaporized=""/>
    <tripinfo id="f_2.41" depart="124.00" departLane="L1_0" departPos="5.10" departSpeed="0.00" departDelay="42.00" arrival="264.00" arrivalLane="L12_2" arrivalPos="30.10" arrivalSpeed="18.42" duration="140.00" routeLength="956.27" waitingTime="64.00" waitingCount="1" stopTime="0.00" timeLoss="89.39" rerouteNo="1" devices="tripinfo_f_2.41 routing_f_2.41" vType="DEFAULT_VEHTYPE" speedFactor="1.15" vaporized=""/>